HEADER
"PSFversion" "1.00"
"Voutv" "Vout"
"Vinv" "Vin"
"gndv" "gnd"
"Vsuppv" "Vsupp"
