HEADER
"PSFversion" "1.00"
"V3v" "V3"
"V3n" "analogLib_vsin_spectre"
"I0v" "I0"
"I0n" "analogLib_idc_spectre"
"G1v" "G1"
"G1n" "analogLib_vccs_spectre"
"V1v" "V1"
"V1n" "analogLib_vpulse_spectre"
"E0v" "E0"
"E0n" "analogLib_vcvs_spectre"
"I40v" "I40"
"I40n" "simect_v_uni_v_uni_sch"
"V19v" "V19"
"V19n" "analogLib_vdc_spectre"
"V2v" "V2"
"V2n" "analogLib_vdc_spectre"
"V5v" "V5"
"V5n" "analogLib_vdc_spectre"
"V0v" "V0"
"V0n" "analogLib_vdc_spectre"
