HEADER
"PSFversion" "1.00"
"net019v" "net019"
"net0106v" "net0106"
"net028v" "net028"
"net026v" "net026"
"net015v" "net015"
"net018v" "net018"
"Voutv" "Vout"
"Vinv" "Vin"
"gnd!v" "0"
