HEADER
"PSFversion" "1.00"
"__NEXT_FILE__" "test_v_uni_v_uni"
