HEADER
"PSFversion" "1.00"
"PLUSv" ":sink"
"MINUSv" "(FUNCTION minus(root(\"PLUS\")))"
