HEADER
"PSFversion" "1.00"
":sinkv" "PLUS"
"(FUNCTION minus(root(\"PLUS\")))v" "MINUS"
