HEADER
"PSFversion" "1.00"
"Cv" ":c"
"Bv" ":b"
"Ev" ":e"
"SUBv" ":s"
