HEADER
"PSFversion" "1.00"
"I0v" "I0"
"I0n" "analogLib_idc_spectre"
"I1v" "I1"
"I1n" "analogLib_idc_spectre"
"I2v" "I2"
"I2n" "analogLib_idc_spectre"
"I3v" "I3"
"I3n" "analogLib_idc_spectre"
"MP12v" "MP12"
"MP12n" "PRIMLIB_pmos4_spectre"
"MP11v" "MP11"
"MP11n" "PRIMLIB_pmos4_spectre"
"MP1v" "MP1"
"MP1n" "PRIMLIB_pmos4_spectre"
"MP10v" "MP10"
"MP10n" "PRIMLIB_pmos4_spectre"
"MP0v" "MP0"
"MP0n" "PRIMLIB_pmos4_spectre"
"MP9v" "MP9"
"MP9n" "PRIMLIB_pmos4_spectre"
"Q0v" "Q0"
"Q0n" "PRIMLIB_npn143h5_spectre"
"Q1v" "Q1"
"Q1n" "PRIMLIB_npn143h5_spectre"
"MN8v" "MN8"
"MN8n" "PRIMLIB_nmos4_spectre"
"MN7v" "MN7"
"MN7n" "PRIMLIB_nmos4_spectre"
"MN2v" "MN2"
"MN2n" "PRIMLIB_nmos4_spectre"
"MN6v" "MN6"
"MN6n" "PRIMLIB_nmos4_spectre"
"V2v" "V2"
"V2n" "analogLib_vdc_spectre"
"V7v" "V7"
"V7n" "analogLib_vdc_spectre"
"R1v" "R1"
"R1n" "analogLib_res_spectre"
"R0v" "R0"
"R0n" "analogLib_res_spectre"
":1v" "Iin+"
":2v" "Iin-"
":3v" "Iout+"
":4v" "Iout-"
":5v" "Vsupp"
":6v" "gnd"
