HEADER
"PSFversion" "1.00"
"net35v" "net35"
"net85v" "net85"
"net79v" "net79"
"net86v" "net86"
"Iout-v" "Iout\\-"
"net59v" "net59"
"Iin-v" "Iin\\-"
"net88v" "net88"
"net49v" "net49"
"Vsuppv" "Vsupp"
"Iout+v" "Iout\\+"
"net76v" "net76"
"gndv" "gnd"
"Iin+v" "Iin\\+"
