HEADER
"PSFversion" "1.00"
"net055v" "net055"
"net034v" "net034"
"net036v" "net036"
"net0106v" "net0106"
"net028v" "net028"
"net012v" "net012"
"net025v" "net025"
"net011v" "net011"
"Vin1v" "Vin1"
"Vin2v" "Vin2"
"Vout2v" "Vout2"
"Vout1v" "Vout1"
"gnd!v" "0"
