HEADER
"PSFversion" "1.00"
"V4v" "V4"
"V4n" "analogLib_vsin_spectre"
"I39v" "I39"
"I39n" "simect_i_diff_i_diff_sch"
"V3v" "V3"
"V3n" "analogLib_vpulse_spectre"
"G0v" "G0"
"G0n" "analogLib_vccs_spectre"
"G1v" "G1"
"G1n" "analogLib_vccs_spectre"
"I0v" "I0"
"I0n" "analogLib_idc_spectre"
"E2v" "E2"
"E2n" "analogLib_vcvs_spectre"
"E1v" "E1"
"E1n" "analogLib_vcvs_spectre"
"F5v" "F5"
"F5n" "analogLib_cccs_spectre"
"V1v" "V1"
"V1n" "analogLib_vdc_spectre"
"V2v" "V2"
"V2n" "analogLib_vdc_spectre"
"V9v" "V9"
"V9n" "analogLib_vdc_spectre"
"V10v" "V10"
"V10n" "analogLib_vdc_spectre"
"V0v" "V0"
"V0n" "analogLib_vdc_spectre"
"V14v" "V14"
"V14n" "analogLib_vdc_spectre"
