HEADER
"PSFversion" "1.00"
"__NEXT_FILE__" "test_i_diff_i_diff"
