HEADER
"PSFversion" "1.00"
":pv" "PLUS"
"(FUNCTION minus(root(\"PLUS\")))v" "MINUS"
