HEADER
"PSFversion" "1.00"
"PLUSv" ":p"
"MINUSv" "(FUNCTION minus(root(\"PLUS\")))"
