HEADER
"PSFversion" "1.00"
":cv" "C"
":bv" "B"
":ev" "E"
":sv" "SUB"
