HEADER
"PSFversion" "1.00"
"net070v" "net070"
"net092v" "net092"
"net0238v" "net0238"
"Vsuppv" "Vsupp"
"net037v" "net037"
"Vout-v" "Vout\\-"
"Vout+v" "Vout\\+"
"net043v" "net043"
"net0188v" "net0188"
"net0176v" "net0176"
"net0112v" "net0112"
"net0172v" "net0172"
"net038v" "net038"
"net0103v" "net0103"
"net062v" "net062"
"net051v" "net051"
"Iinv" "Iin"
"gndv" "gnd"
