HEADER
"PSFversion" "1.00"
"I24v" "I24"
"I24n" "PRIMLIB_npn254h5_spectre"
"I20v" "I20"
"I20n" "PRIMLIB_npn254h5_spectre"
"I21v" "I21"
"I21n" "PRIMLIB_npn254h5_spectre"
"I15v" "I15"
"I15n" "PRIMLIB_npn254h5_spectre"
"C6v" "C6"
"C6n" "analogLib_cap_spectre"
"C0v" "C0"
"C0n" "analogLib_cap_spectre"
"R3v" "R3"
"R3n" "analogLib_res_spectre"
"R2v" "R2"
"R2n" "analogLib_res_spectre"
"R1v" "R1"
"R1n" "analogLib_res_spectre"
"R0v" "R0"
"R0n" "analogLib_res_spectre"
"MN8v" "MN8"
"MN8n" "PRIMLIB_nmos4_spectre"
"MN6v" "MN6"
"MN6n" "PRIMLIB_nmos4_spectre"
"MN2v" "MN2"
"MN2n" "PRIMLIB_nmos4_spectre"
"MN7v" "MN7"
"MN7n" "PRIMLIB_nmos4_spectre"
"Q0v" "Q0"
"Q0n" "PRIMLIB_npn143h5_spectre"
"Q1v" "Q1"
"Q1n" "PRIMLIB_npn143h5_spectre"
"MP11v" "MP11"
"MP11n" "PRIMLIB_pmos4_spectre"
"MP12v" "MP12"
"MP12n" "PRIMLIB_pmos4_spectre"
"MP0v" "MP0"
"MP0n" "PRIMLIB_pmos4_spectre"
"MP1v" "MP1"
"MP1n" "PRIMLIB_pmos4_spectre"
"MP9v" "MP9"
"MP9n" "PRIMLIB_pmos4_spectre"
"MP10v" "MP10"
"MP10n" "PRIMLIB_pmos4_spectre"
"I25v" "I25"
"I25n" "analogLib_idc_spectre"
"I23v" "I23"
"I23n" "analogLib_idc_spectre"
"I26v" "I26"
"I26n" "analogLib_idc_spectre"
"I30v" "I30"
"I30n" "analogLib_idc_spectre"
"I3v" "I3"
"I3n" "analogLib_idc_spectre"
"I2v" "I2"
"I2n" "analogLib_idc_spectre"
"I1v" "I1"
"I1n" "analogLib_idc_spectre"
"I0v" "I0"
"I0n" "analogLib_idc_spectre"
"V7v" "V7"
"V7n" "analogLib_vdc_spectre"
"V2v" "V2"
"V2n" "analogLib_vdc_spectre"
"Iinv" ":1"
"Vout+v" ":2"
"Vout-v" ":3"
"Vsuppv" ":4"
"gndv" ":5"
