HEADER
"PSFversion" "1.00"
"F5v" "F5"
"F5n" "analogLib_cccs_spectre"
"I42v" "I42"
"I42n" "simect_i_uni_v_diff_sch"
"V4v" "V4"
"V4n" "analogLib_vsin_spectre"
"V23v" "V23"
"V23n" "analogLib_vpulse_spectre"
"G0v" "G0"
"G0n" "analogLib_vccs_spectre"
"G1v" "G1"
"G1n" "analogLib_vccs_spectre"
"G2v" "G2"
"G2n" "analogLib_vccs_spectre"
"I1v" "I1"
"I1n" "analogLib_idc_spectre"
"I0v" "I0"
"I0n" "analogLib_idc_spectre"
"V20v" "V20"
"V20n" "analogLib_vdc_spectre"
"V1v" "V1"
"V1n" "analogLib_vdc_spectre"
"V19v" "V19"
"V19n" "analogLib_vdc_spectre"
"V2v" "V2"
"V2n" "analogLib_vdc_spectre"
"V3v" "V3"
"V3n" "analogLib_vdc_spectre"
"V0v" "V0"
"V0n" "analogLib_vdc_spectre"
"V14v" "V14"
"V14n" "analogLib_vdc_spectre"
