HEADER
"PSFversion" "1.00"
"net034v" "net034"
"net036v" "net036"
"net0106v" "net0106"
"net027v" "net027"
"net045v" "net045"
"net051v" "net051"
"net046v" "net046"
"net025v" "net025"
"net011v" "net011"
"Vinv" "Vin"
"Vout2v" "Vout2"
"Vout1v" "Vout1"
"0v" "gnd!"
