HEADER
"PSFversion" "1.00"
"__NEXT_FILE__" "test_i_uni_v_diff"
