HEADER
"PSFversion" "1.00"
":pv" "PLUS"
"(FUNCTION minus(root(\"PLUS\")))v" "MINUS"
"(FUNCTION zero(root(\"PLUS\")))v" "NC+"
"(FUNCTION zero(root(\"PLUS\")))v" "NC-"
