HEADER
"PSFversion" "1.00"
"gndv" "gnd"
"Vsuppv" "Vsupp"
"net19v" "net19"
"net20v" "net20"
"Ioutv" "Iout"
"Vin+v" "Vin\\+"
"Vin-v" "Vin\\-"
