HEADER
"PSFversion" "1.00"
"I44v" "I44"
"I44n" "simect_v_diff_i_uni_sch"
"V3v" "V3"
"V3n" "analogLib_vsin_spectre"
"V1v" "V1"
"V1n" "analogLib_vpulse_spectre"
"E1v" "E1"
"E1n" "analogLib_vcvs_spectre"
"E0v" "E0"
"E0n" "analogLib_vcvs_spectre"
"E2v" "E2"
"E2n" "analogLib_vcvs_spectre"
"V9v" "V9"
"V9n" "analogLib_vdc_spectre"
"V10v" "V10"
"V10n" "analogLib_vdc_spectre"
"V5v" "V5"
"V5n" "analogLib_vdc_spectre"
"V0v" "V0"
"V0n" "analogLib_vdc_spectre"
