HEADER
"PSFversion" "1.00"
"net019v" "net019"
"net0106v" "net0106"
"net029v" "net029"
"Vin2v" "Vin2"
"Voutv" "Vout"
"net028v" "net028"
"net043v" "net043"
"net026v" "net026"
"Vin1v" "Vin1"
"0v" "gnd!"
