HEADER
"PSFversion" "1.00"
"__NEXT_FILE__" "test_v_diff_i_uni"
